#!/usr/bin/expect
#-------------------------------------------
# Author: LHearen
# E-mail: LHearen@126.com
# Time  :	2015-12-06 10:54
# Description: Used to automate git committing 
#-------------------------------------------
set message [lindex $argv 0];
spawn git commit -m $message
spawn git push origin master
expect "Username" {send "userName\r"}
expect "Password" {send "passworkd\r"}
interact
